
16 atoms
3 atom types

0  4.99784 xlo xhi
0  4.32826 ylo yhi
0 30.00000 zlo zhi

    
Masses

1 58.6934
2 1.0000
3 12.0107

Atoms

1  1  0 1.2494612178905355 0.7213767704910981 0.0000000000000000 
2  1  0 3.7483836536716062 0.7213767704910981 0.0000000000000000 
3  1  0 2.4989224357810711 2.8855070819643922 0.0000000000000000 
4  1  0 4.9978448715621422 2.8855070819643922 0.0000000000000000 
5  1  0 0.0000000000000000 1.4427535409821961 2.0403616248188285 
6  1  0 2.4989224357810711 1.4427535409821961 2.0403616248188285 
7  1  0 1.2494612178905353 3.6068838524554905 2.0403616248188285 
8  1  0 3.7483836536716062 3.6068838524554905 2.0403616248188285 
9  1  0 0.0000000000000000 0.0000000000000000 4.0807232496376589 
10 1  0 2.4989224357810711 0.0000000000000000 4.0807232496376589 
11 1  0 1.2494612178905355 2.1641303114732944 4.0807232496376589 
12 1  0 3.7483836536716066 2.1641303114732944 4.0807232496376589 
13 1  0 1.2494612178905355 0.7213767704910981 6.1210848744564892 
14 1  0 3.7483836536716062 0.7213767704910981 6.1210848744564892 
15 1  0 2.4989224357810711 2.8855070819643922 6.1210848744564892 
16 1  0 4.9978448715621422 2.8855070819643922 6.1210848744564892 

