
27 atoms
3 atom types

0  6.12100 xlo xhi
0  7.49700 ylo yhi
0 30.00000 zlo zhi

    
Masses

1 58.6934
2 1.0000
3 12.0107

Atoms

1  1  0  0.0000000000000000 0.0000000000000000 0.0000000000000000
2  1  0  0.0000000000000000 2.4989224399999999 0.0000000000000000
3  1  0  0.0000000000000000 4.9978448699999998 0.0000000000000000
4  1  0  2.0403616200000001 1.2494612199999999 0.7213767700000000
5  1  0  2.0403616200000001 3.7483836500000001 0.7213767700000000
6  1  0  2.0403616200000001 6.2473060900000004 0.7213767700000000
7  1  0  4.0807232500000001 0.0000000000000000 1.4427535400000000
8  1  0  4.0807232500000001 2.4989224399999999 1.4427535400000000
9  1  0  4.0807232500000001 4.9978448699999998 1.4427535400000000
10 1  0  0.0000000000000000 1.2494612199999999 2.1641303100000000
11 1  0  0.0000000000000000 3.7483836500000001 2.1641303100000000
12 1  0  0.0000000000000000 6.2473060900000004 2.1641303100000000
13 1  0  2.0403616200000001 0.0000000000000000 2.8855070800000000
14 1  0  2.0403616200000001 2.4989224399999999 2.8855070800000000
15 1  0  2.0403616200000001 4.9978448699999998 2.8855070800000000
16 1  0  4.0807232500000001 1.2494612199999999 3.6068838500000000
17 1  0  4.0807232500000001 3.7483836500000001 3.6068838500000000
18 1  0  4.0807232500000001 6.2473060900000004 3.6068838500000000
19 1  0  0.0000000000000000 0.0000000000000000 4.3282606200000000
20 1  0  0.0000000000000000 2.4989224399999999 4.3282606200000000
21 1  0  0.0000000000000000 4.9978448699999998 4.3282606200000000
22 1  0  2.0403616200000001 1.2494612199999999 5.0496373900000000
23 1  0  2.0403616200000001 3.7483836500000001 5.0496373900000000
24 1  0  2.0403616200000001 6.2473060900000004 5.0496373900000000
25 1  0  4.0807232500000001 0.0000000000000000 5.7710141600000000
26 1  0  4.0807232500000001 2.4989224399999999 5.7710141600000000
27 1  0  4.0807232500000001 4.9978448699999998 5.7710141600000000
