
16 atoms
3 atom types

0  4.99784 xlo xhi
0  4.99784 ylo yhi
0 30.00000 zlo zhi

    
Masses

1 58.6934
2 1.0000
3 12.0107

Atoms

1  1  0  1.2494612178905355  1.2494612178905355  0.0000000000000000   
2  1  0  3.7483836536716066  1.2494612178905355  0.0000000000000000   
3  1  0  1.2494612178905355  3.7483836536716066  0.0000000000000000   
4  1  0  3.7483836536716066  3.7483836536716066  0.0000000000000000   
5  1  0  0.0000000000000000  0.0000000000000000  1.7670049999999993   
6  1  0  2.4989224357810711  0.0000000000000000  1.7670049999999993   
7  1  0  0.0000000000000000  2.4989224357810711  1.7670049999999993   
8  1  0  2.4989224357810711  2.4989224357810711  1.7670049999999993   
9  1  0  1.2494612178905355  1.2494612178905355  3.5340100000000003   
10 1  0  3.7483836536716066  1.2494612178905355  3.5340100000000003   
11 1  0  1.2494612178905355  3.7483836536716066  3.5340100000000003   
12 1  0  3.7483836536716066  3.7483836536716066  3.5340100000000003   
13 1  0  0.0000000000000000  0.0000000000000000  5.3010149999999996   
14 1  0  2.4989224357810711  0.0000000000000000  5.3010149999999996   
15 1  0  0.0000000000000000  2.4989224357810711  5.3010149999999996   
16 1  0  2.4989224357810711  2.4989224357810711  5.3010149999999996   

